 argument  1 = /Users/edo/nwchem/nwchem/QA/tests/metagga_li4h4_1_m05_0/metagga_li4h4_1_m05_0.nw
  NWChem w/ OpenMP: maximum threads =    1



============================== echo of input deck ==============================
echo
start metagga_dat
geometry
 li    -0.17036785    -1.98851350    -0.18507277
 h     -1.01806151    -0.68248269     0.95329029
 h      1.01857781     2.53447495     1.00947394
 h      0.94209146    -0.66236475    -1.03431540
 li    -0.01062190    -0.52136326    -2.65460581
 li     0.44732563     0.45170443     0.44804325
 li    -2.65441252    -0.54556895     0.02865581
 h      1.47021538     2.12430588     1.46349018
end
charge +1

basis "ao basis" spherical
  * library def2-svpd
end
basis "cd basis" spherical
 * library "Weigend Coulomb Fitting"
end
dft
  direct
  odft
  mult 2
  xc xm05
  maxiter 100
  print low
end

driver
  clear
  tight
  maxiter 100
end

task dft optimize
task dft frequencies numerical
================================================================================


                                         
                                         


             Northwest Computational Chemistry Package (NWChem) 7.0.1
             --------------------------------------------------------


                    Environmental Molecular Sciences Laboratory
                       Pacific Northwest National Laboratory
                                Richland, WA 99352

                              Copyright (c) 1994-2020
                       Pacific Northwest National Laboratory
                            Battelle Memorial Institute

             NWChem is an open-source computational chemistry package
                        distributed under the terms of the
                      Educational Community License (ECL) 2.0
             A copy of the license is included with this distribution
                              in the LICENSE.TXT file

                                  ACKNOWLEDGMENT
                                  --------------

            This software and its documentation were developed at the
            EMSL at Pacific Northwest National Laboratory, a multiprogram
            national laboratory, operated for the U.S. Department of Energy
            by Battelle under Contract Number DE-AC05-76RL01830. Support
            for this work was provided by the Department of Energy Office
            of Biological and Environmental Research, Office of Basic
            Energy Sciences, and the Office of Advanced Scientific Computing.


           Job information
           ---------------

    hostname        = WE40672
    program         = /Users/edo/nwchem/nwchem/bin/MACX64/nwchem
    date            = Fri Apr  8 13:00:04 2022

    compiled        = Fri_Apr_08_11:52:45_2022
    source          = /Users/edo/nwchem/nwchem
    nwchem branch   = 7.0.0
    nwchem revision = nwchem_on_git-3640-g2b2ee1532b
    ga revision     = 5.8.1
    use scalapack   = T
    input           = /Users/edo/nwchem/nwchem/QA/tests/metagga_li4h4_1_m05_0/metagga_li4h4_1_m05_0.nw
    prefix          = metagga_dat.
    data base       = ./metagga_dat.db
    status          = startup
    nproc           =        4
    time left       =     -1s



           Memory information
           ------------------

    heap     =   26214396 doubles =    200.0 Mbytes
    stack    =   26214401 doubles =    200.0 Mbytes
    global   =   52428800 doubles =    400.0 Mbytes (distinct from heap & stack)
    total    =  104857597 doubles =    800.0 Mbytes
    verify   = yes
    hardfail = no 


           Directory information
           ---------------------

  0 permanent = .
  0 scratch   = .




                                NWChem Input Module
                                -------------------



 Scaling coordinates for geometry "geometry" by  1.889725989
 (inverse scale =  0.529177249)

 C1  symmetry detected

          ------
          auto-z
          ------
  autoz: The atoms group into disjoint clusters
 cluster   1:    1    2    4    5    6    7
 cluster   2:    3    8
 Connecting clusters   1   2 via atoms    6    8 r = 2.21
  autoz: regenerating connections with new bonds
  no constraints, skipping    0.0000000000000000     
  no constraints, skipping    0.0000000000000000     


                             Geometry "geometry" -> ""
                             -------------------------

 Output coordinates in angstroms (scale by  1.889725989 to convert to a.u.)

  No.       Tag          Charge          X              Y              Z
 ---- ---------------- ---------- -------------- -------------- --------------
    1 li                   3.0000     0.01175668    -0.94182900     1.43385605
    2 h                    1.0000    -1.39693485     0.01940696     0.53286488
    3 h                    1.0000    -0.02340414     3.20836646    -1.03040844
    4 h                    1.0000     1.39448563     0.05330213     0.53095852
    5 li                   3.0000     1.89541199    -1.26848035    -0.71597734
    6 li                   3.0000    -0.01558378     1.27781462     0.08868715
    7 li                   3.0000    -1.87132331    -1.31103659    -0.71461837
    8 h                    1.0000    -0.03493139     3.44951840    -0.30925743

      Atomic Mass 
      ----------- 

      li                 7.016000
      h                  1.007825


 Effective nuclear repulsion energy (a.u.)      19.9486909257

            Nuclear Dipole moment (a.u.) 
            ----------------------------
        X                 Y               Z
 ---------------- ---------------- ----------------
    -0.0000000000    -0.0000000000    -0.0000000000



                                Z-matrix (autoz)
                                -------- 

 Units are Angstrom for bonds and degrees for angles

      Type          Name      I     J     K     L     M      Value
      ----------- --------  ----- ----- ----- ----- ----- ----------
    1 Stretch                  1     2                       1.92877
    2 Stretch                  1     4                       1.92807
    3 Stretch                  1     5                       2.87692
    4 Stretch                  1     6                       2.59558
    5 Stretch                  1     7                       2.88067
    6 Stretch                  2     6                       1.92068
    7 Stretch                  2     7                       1.88450
    8 Stretch                  3     8                       0.76049
    9 Stretch                  4     5                       1.88491
   10 Stretch                  4     6                       1.91920
   11 Stretch                  6     8                       2.20795
   12 Bend                     1     2     6                84.79508
   13 Bend                     1     2     7                98.11949
   14 Bend                     1     4     5                97.95807
   15 Bend                     1     4     6                84.85449
   16 Bend                     1     5     4                41.58512
   17 Bend                     1     6     8               159.16737
   18 Bend                     1     6     2                47.73440
   19 Bend                     1     6     4                47.71725
   20 Bend                     1     7     2                41.51731
   21 Bend                     2     1     4                92.74010
   22 Bend                     2     1     5               100.70261
   23 Bend                     2     1     6                47.47052
   24 Bend                     2     1     7                40.36320
   25 Bend                     2     6     8               132.82896
   26 Bend                     2     6     4                93.27240
   27 Bend                     3     8     6                81.88742
   28 Bend                     4     1     5                40.45681
   29 Bend                     4     1     6                47.42826
   30 Bend                     4     1     7               100.70138
   31 Bend                     4     6     8               132.49542
   32 Bend                     5     1     6                73.54385
   33 Bend                     5     1     7                81.72761
   34 Bend                     5     4     6               119.35532
   35 Bend                     6     1     7                73.51238
   36 Bend                     6     2     7               119.37449
   37 Torsion                  1     2     6     8        -151.59782
   38 Torsion                  1     2     6     4          15.72348
   39 Torsion                  1     4     6     8         151.66239
   40 Torsion                  1     4     6     2         -15.72787
   41 Torsion                  1     5     4     6         -88.55188
   42 Torsion                  1     6     8     3         178.81667
   43 Torsion                  1     6     2     7         -96.40015
   44 Torsion                  1     6     4     5          96.24846
   45 Torsion                  1     7     2     6          88.57601
   46 Torsion                  2     1     4     5        -103.32121
   47 Torsion                  2     1     4     6          15.65234
   48 Torsion                  2     1     5     4          81.56724
   49 Torsion                  2     1     6     8         101.22094
   50 Torsion                  2     1     6     4        -158.54967
   51 Torsion                  2     6     8     3         -99.38322
   52 Torsion                  2     6     1     4         158.54967
   53 Torsion                  2     6     1     5         122.25699
   54 Torsion                  2     6     1     7          36.21536
   55 Torsion                  2     6     4     5          80.52058
   56 Torsion                  2     7     1     4         -81.53452
   57 Torsion                  2     7     1     5        -117.44052
   58 Torsion                  2     7     1     6         -42.24388
   59 Torsion                  3     8     6     4          97.90553
   60 Torsion                  4     1     2     6         -15.64147
   61 Torsion                  4     1     2     7         103.34074
   62 Torsion                  4     1     6     8        -100.22939
   63 Torsion                  4     5     1     6          42.20459
   64 Torsion                  4     5     1     7         117.36607
   65 Torsion                  4     6     1     5         -36.29269
   66 Torsion                  4     6     1     7        -122.33432
   67 Torsion                  4     6     2     7         -80.67666
   68 Torsion                  5     1     2     6         -55.62701
   69 Torsion                  5     1     2     7          63.35521
   70 Torsion                  5     1     4     6         118.97355
   71 Torsion                  5     1     6     8        -136.52207
   72 Torsion                  5     4     1     6        -118.97355
   73 Torsion                  5     4     1     7         -63.43180
   74 Torsion                  5     4     6     8        -112.08916
   75 Torsion                  6     1     2     7         118.98222
   76 Torsion                  6     2     1     7        -118.98222
   77 Torsion                  6     4     1     7          55.54175
   78 Torsion                  7     1     6     8         137.43630
   79 Torsion                  7     2     6     8         112.00203


            XYZ format geometry
            -------------------
     8
 geometry
 li                    0.01175668    -0.94182900     1.43385605
 h                    -1.39693485     0.01940696     0.53286488
 h                    -0.02340414     3.20836646    -1.03040844
 h                     1.39448563     0.05330213     0.53095852
 li                    1.89541199    -1.26848035    -0.71597734
 li                   -0.01558378     1.27781462     0.08868715
 li                   -1.87132331    -1.31103659    -0.71461837
 h                    -0.03493139     3.44951840    -0.30925743

 ==============================================================================
                                internuclear distances
 ------------------------------------------------------------------------------
       center one      |      center two      | atomic units |  angstroms
 ------------------------------------------------------------------------------
    6 li               |   1 li               |     4.90494  |     2.59558
 ------------------------------------------------------------------------------
                         number of included internuclear distances:          1
 ==============================================================================





 Summary of "ao basis" -> "" (spherical)
 ------------------------------------------------------------------------------
       Tag                 Description            Shells   Functions and Types
 ---------------- ------------------------------  ------  ---------------------
 *                         def2-svpd                  on all atoms 




 Summary of "cd basis" -> "" (spherical)
 ------------------------------------------------------------------------------
       Tag                 Description            Shells   Functions and Types
 ---------------- ------------------------------  ------  ---------------------
 *                  Weigend Coulomb Fitting           on all atoms 



  Deleted DRIVER restart files 



                           NWChem Geometry Optimization
                           ----------------------------


  no constraints, skipping    0.0000000000000000     
 maximum gradient threshold         (gmax) =   0.000015
 rms gradient threshold             (grms) =   0.000010
 maximum cartesian step threshold   (xmax) =   0.000060
 rms cartesian step threshold       (xrms) =   0.000040
 fixed trust radius                (trust) =   0.300000
 maximum step size to saddle      (sadstp) =   0.100000
 energy precision                  (eprec) =   5.0D-06
 maximum number of steps          (nptopt) =  100
 initial hessian option           (inhess) =    0
 line search option               (linopt) =    1
 hessian update option            (modupd) =    1
 saddle point option              (modsad) =    0
 initial eigen-mode to follow     (moddir) =    0
 initial variable to follow       (vardir) =    0
 follow first negative mode     (firstneg) =    T
 apply conjugacy                    (opcg) =    F
 source of zmatrix                         =   autoz   


          -------------------
          Energy Minimization
          -------------------


 Names of Z-matrix variables 
    1              2              3              4              5         
    6              7              8              9             10         
   11             12             13             14             15         
   16             17             18             19             20         
   21             22             23             24             25         
   26             27             28             29             30         
   31             32             33             34             35         
   36             37             38             39             40         
   41             42             43             44             45         
   46             47             48             49             50         
   51             52             53             54             55         
   56             57             58             59             60         
   61             62             63             64             65         
   66             67             68             69             70         
   71             72             73             74             75         
   76             77             78             79         

 Variables with the same non-blank name are constrained to be equal


 Using diagonal initial Hessian 
 Scaling for Hessian diagonals: bonds = 1.00  angles = 0.25  torsions = 0.10

          --------
          Step   0
          --------


                         Geometry "geometry" -> "geometry"
                         ---------------------------------

 Output coordinates in angstroms (scale by  1.889725989 to convert to a.u.)

  No.       Tag          Charge          X              Y              Z
 ---- ---------------- ---------- -------------- -------------- --------------
    1 li                   3.0000     0.01175668    -0.94182900     1.43385605
    2 h                    1.0000    -1.39693485     0.01940696     0.53286488
    3 h                    1.0000    -0.02340414     3.20836646    -1.03040844
    4 h                    1.0000     1.39448563     0.05330213     0.53095852
    5 li                   3.0000     1.89541199    -1.26848035    -0.71597734
    6 li                   3.0000    -0.01558378     1.27781462     0.08868715
    7 li                   3.0000    -1.87132331    -1.31103659    -0.71461837
    8 h                    1.0000    -0.03493139     3.44951840    -0.30925743

      Atomic Mass 
      ----------- 

      li                 7.016000
      h                  1.007825


 Effective nuclear repulsion energy (a.u.)      19.9486909257

            Nuclear Dipole moment (a.u.) 
            ----------------------------
        X                 Y               Z
 ---------------- ---------------- ----------------
    -0.0000000000    -0.0000000000    -0.0000000000


                                 NWChem DFT Module
                                 -----------------


                      Basis "ao basis" -> "ao basis" (spherical)
                      -----
  li (Lithium)
  ------------
            Exponent  Coefficients 
       -------------- ---------------------------------------------------------
  1 S  2.66277855E+02  0.006492
  1 S  4.00697834E+01  0.047748
  1 S  9.05599444E+00  0.202688
  1 S  2.45030091E+00  0.486066
  1 S  7.22095719E-01  0.436270

  2 S  5.28108847E-02  1.000000

  3 S  2.09609488E-02  1.000000

  4 P  1.45000000E+00  0.258600
  4 P  3.00000000E-01  1.000000

  5 P  8.20000000E-02  1.000000

  6 P  2.63476625E-02  1.000000

  h (Hydrogen)
  ------------
            Exponent  Coefficients 
       -------------- ---------------------------------------------------------
  1 S  1.30107010E+01  0.019682
  1 S  1.96225720E+00  0.137965
  1 S  4.44537960E-01  0.478319

  2 S  1.21949620E-01  1.000000

  3 P  8.00000000E-01  1.000000

  4 P  1.17040991E-01  1.000000



 Summary of "ao basis" -> "ao basis" (spherical)
 ------------------------------------------------------------------------------
       Tag                 Description            Shells   Functions and Types
 ---------------- ------------------------------  ------  ---------------------
 li                        def2-svpd                 6       12   3s3p
 h                         def2-svpd                 4        8   2s2p


                      Basis "cd basis" -> "cd basis" (spherical)
                      -----
  li (Lithium)
  ------------
            Exponent  Coefficients 
       -------------- ---------------------------------------------------------
  1 S  4.98368973E+02  0.020791
  1 S  1.62934274E+02  0.054218
  1 S  5.73246735E+01  0.177678
  1 S  2.16427314E+01  0.418115
  1 S  8.73453750E+00  0.653525
  1 S  3.74910390E+00  0.549262
  1 S  1.70067540E+00  0.170143

  2 S  8.09085900E-01  1.000000

  3 S  4.00093300E-01  1.000000

  4 S  2.03579300E-01  1.000000

  5 S  1.05420100E-01  1.000000

  6 S  5.49139000E-02  1.000000

  7 P  1.07024696E+01  0.007292
  7 P  3.65515430E+00  0.006094

  8 P  1.24640130E+00  1.000000

  9 P  4.24628200E-01  1.000000

 10 P  1.44619200E-01  1.000000

 11 D  1.15106470E+00 -0.001431
 11 D  6.01911200E-01  0.003897

 12 D  3.10957300E-01  1.000000

 13 D  1.60003200E-01  1.000000

 14 F  5.96791800E-01  0.001049
 14 F  1.79068700E-01  0.000647

 15 G  1.04601300E+00  1.000000

  h (Hydrogen)
  ------------
            Exponent  Coefficients 
       -------------- ---------------------------------------------------------
  1 S  1.56752927E+01  0.018689
  1 S  3.60635780E+00  0.063167
  1 S  1.20800160E+00  0.120461

  2 S  4.72679400E-01  1.000000

  3 S  2.01810000E-01  1.000000

  4 P  2.02813650E+00  1.000000
  4 P  5.35873000E-01  1.000000

  5 D  2.21651240E+00  1.000000



 Summary of "cd basis" -> "cd basis" (spherical)
 ------------------------------------------------------------------------------
       Tag                 Description            Shells   Functions and Types
 ---------------- ------------------------------  ------  ---------------------
 li                 Weigend Coulomb Fitting         15       49   6s4p3d1f1g
 h                  Weigend Coulomb Fitting          5       11   3s1p1d



  Caching 1-el integrals 
   Time after variat. SCF:      0.7
   Time prior to 1st pass:      0.7
  Resetting Diis


         Total DFT energy =      -31.933794407138
      One electron energy =      -78.795937214584
           Coulomb energy =       35.307441610444
    Exchange-Corr. energy =       -8.393989728667
 Nuclear repulsion energy =       19.948690925669

 Numeric. integr. density =       14.999987342320

     Total iterative time =      8.5s



     --------------------------
     Expectation value of S2:  
     --------------------------
      <S2> =      0.7512 (Exact =     0.7500)

  int_init: cando_txs set to always be  F
  intd_init: cando_txs set to always be  F


                         DFT ENERGY GRADIENTS

    atom               coordinates                        gradient
                 x          y          z           x          y          z
   1 li      0.022217  -1.779799   2.709595    0.000056  -0.000361  -0.000715
   2 h      -2.639824   0.036674   1.006969   -0.001292   0.000685   0.000685
   3 h      -0.044227   6.062933  -1.947190   -0.000148   0.003766   0.009188
   4 h       2.635196   0.100726   1.003366    0.001246   0.000783   0.000680
   5 li      3.581809  -2.397080  -1.353001   -0.000498  -0.000610  -0.000205
   6 li     -0.029449   2.414720   0.167594    0.000019  -0.000852   0.000189
   7 li     -3.536288  -2.477500  -1.350433    0.000462  -0.000587  -0.000253
   8 h      -0.066011   6.518645  -0.584412    0.000155  -0.002824  -0.009569

  no constraints, skipping    0.0000000000000000     

@ Step       Energy      Delta E   Gmax     Grms     Xrms     Xmax   Walltime
@ ---- ---------------- -------- -------- -------- -------- -------- --------
@    0     -31.93379441  0.0D+00  0.00991  0.00113  0.00000  0.00000     12.1
                                                                    



                                Z-matrix (autoz)
                                -------- 

 Units are Angstrom for bonds and degrees for angles

      Type          Name      I     J     K     L     M      Value     Gradient
      ----------- --------  ----- ----- ----- ----- ----- ---------- ----------
    1 Stretch                  1     2                       1.92877    0.00019
    2 Stretch                  1     4                       1.92807    0.00018
    3 Stretch                  1     5                       2.87692    0.00007
    4 Stretch                  1     6                       2.59558    0.00025
    5 Stretch                  1     7                       2.88067    0.00011
    6 Stretch                  2     6                       1.92068    0.00027
    7 Stretch                  2     7                       1.88450    0.00026
    8 Stretch                  3     8                       0.76049   -0.00991
    9 Stretch                  4     5                       1.88491    0.00025
   10 Stretch                  4     6                       1.91920    0.00024
   11 Stretch                  6     8                       2.20795    0.00100
   12 Bend                     1     2     6                84.79508   -0.00004
   13 Bend                     1     2     7                98.11949   -0.00019
   14 Bend                     1     4     5                97.95807   -0.00020
   15 Bend                     1     4     6                84.85449   -0.00002
   16 Bend                     1     5     4                41.58512    0.00009
   17 Bend                     1     6     8               159.16737    0.00007
   18 Bend                     1     6     2                47.73440   -0.00000
   19 Bend                     1     6     4                47.71725   -0.00000
   20 Bend                     1     7     2                41.51731    0.00008
   21 Bend                     2     1     4                92.74010    0.00009
   22 Bend                     2     1     5               100.70261    0.00008
   23 Bend                     2     1     6                47.47052    0.00004
   24 Bend                     2     1     7                40.36320    0.00011
   25 Bend                     2     6     8               132.82896   -0.00000
   26 Bend                     2     6     4                93.27240    0.00001
   27 Bend                     3     8     6                81.88742    0.00050
   28 Bend                     4     1     5                40.45681    0.00012
   29 Bend                     4     1     6                47.42826    0.00003
   30 Bend                     4     1     7               100.70138    0.00008
   31 Bend                     4     6     8               132.49542   -0.00000
   32 Bend                     5     1     6                73.54385    0.00008
   33 Bend                     5     1     7                81.72761   -0.00005
   34 Bend                     5     4     6               119.35532   -0.00006
   35 Bend                     6     1     7                73.51238    0.00009
   36 Bend                     6     2     7               119.37449   -0.00006
   37 Torsion                  1     2     6     8        -151.59782   -0.00009
   38 Torsion                  1     2     6     4          15.72348   -0.00007
   39 Torsion                  1     4     6     8         151.66239    0.00009
   40 Torsion                  1     4     6     2         -15.72787    0.00007
   41 Torsion                  1     5     4     6         -88.55188    0.00015
   42 Torsion                  1     6     8     3         178.81667   -0.00000
   43 Torsion                  1     6     2     7         -96.40015    0.00023
   44 Torsion                  1     6     4     5          96.24846   -0.00024
   45 Torsion                  1     7     2     6          88.57601   -0.00016
   46 Torsion                  2     1     4     5        -103.32121   -0.00000
   47 Torsion                  2     1     4     6          15.65234   -0.00006
   48 Torsion                  2     1     5     4          81.56724    0.00008
   49 Torsion                  2     1     6     8         101.22094   -0.00004
   50 Torsion                  2     1     6     4        -158.54967   -0.00010
   51 Torsion                  2     6     8     3         -99.38322    0.00002
   52 Torsion                  2     6     1     4         158.54967    0.00010
   53 Torsion                  2     6     1     5         122.25699   -0.00001
   54 Torsion                  2     6     1     7          36.21536    0.00010
   55 Torsion                  2     6     4     5          80.52058   -0.00017
   56 Torsion                  2     7     1     4         -81.53452   -0.00007
   57 Torsion                  2     7     1     5        -117.44052   -0.00014
   58 Torsion                  2     7     1     6         -42.24388   -0.00004
   59 Torsion                  3     8     6     4          97.90553   -0.00002
   60 Torsion                  4     1     2     6         -15.64147    0.00006
   61 Torsion                  4     1     2     7         103.34074    0.00000
   62 Torsion                  4     1     6     8        -100.22939    0.00005
   63 Torsion                  4     5     1     6          42.20459    0.00003
   64 Torsion                  4     5     1     7         117.36607    0.00013
   65 Torsion                  4     6     1     5         -36.29269   -0.00010
   66 Torsion                  4     6     1     7        -122.33432    0.00000
   67 Torsion                  4     6     2     7         -80.67666    0.00016
   68 Torsion                  5     1     2     6         -55.62701   -0.00007
   69 Torsion                  5     1     2     7          63.35521   -0.00012
   70 Torsion                  5     1     4     6         118.97355   -0.00006
   71 Torsion                  5     1     6     8        -136.52207   -0.00005
   72 Torsion                  5     4     1     6        -118.97355    0.00006
   73 Torsion                  5     4     1     7         -63.43180    0.00012
   74 Torsion                  5     4     6     8        -112.08916   -0.00015
   75 Torsion                  6     1     2     7         118.98222   -0.00006
   76 Torsion                  6     2     1     7        -118.98222    0.00006
   77 Torsion                  6     4     1     7          55.54175    0.00006
   78 Torsion                  7     1     6     8         137.43630    0.00005
   79 Torsion                  7     2     6     8         112.00203    0.00014

  no constraints, skipping    0.0000000000000000     
  no constraints, skipping    0.0000000000000000     
  no constraints, skipping    0.0000000000000000     
  no constraints, skipping    0.0000000000000000     
  no constraints, skipping    0.0000000000000000     
  no constraints, skipping    0.0000000000000000     
  no constraints, skipping    0.0000000000000000     
  no constraints, skipping    0.0000000000000000     

                                 NWChem DFT Module
                                 -----------------



  Caching 1-el integrals 
   Time after variat. SCF:     12.4
   Time prior to 1st pass:     12.4


         Total DFT energy =      -31.933952370635
      One electron energy =      -78.793572963976
           Coulomb energy =       35.306992028374
    Exchange-Corr. energy =       -8.388934786349
 Nuclear repulsion energy =       19.941563351316

 Numeric. integr. density =       14.999986510011

     Total iterative time =      4.9s



     --------------------------
     Expectation value of S2:  
     --------------------------
      <S2> =      0.7512 (Exact =     0.7500)

 Line search: 
     step= 1.00 grad=-4.1D-04 hess= 2.6D-04 energy=    -31.933952 mode=downhill
 new step= 0.81                   predicted energy=    -31.933962
  no constraints, skipping    0.0000000000000000     
  no constraints, skipping    0.0000000000000000     
  no constraints, skipping    0.0000000000000000     
  no constraints, skipping    0.0000000000000000     
  no constraints, skipping    0.0000000000000000     
  no constraints, skipping    0.0000000000000000     
  no constraints, skipping    0.0000000000000000     
  no constraints, skipping    0.0000000000000000     

          --------
          Step   1
          --------


                         Geometry "geometry" -> "geometry"
                         ---------------------------------

 Output coordinates in angstroms (scale by  1.889725989 to convert to a.u.)

  No.       Tag          Charge          X              Y              Z
 ---- ---------------- ---------- -------------- -------------- --------------
    1 li                   3.0000     0.01171788    -0.94226709     1.43326777
    2 h                    1.0000    -1.39519216     0.02009614     0.53310014
    3 h                    1.0000    -0.02327480     3.19835071    -1.03804561
    4 h                    1.0000     1.39274575     0.05383127     0.53122343
    5 li                   3.0000     1.89764461    -1.26343587    -0.71667438
    6 li                   3.0000    -0.01561673     1.27926020     0.09103830
    7 li                   3.0000    -1.87356423    -1.30604277    -0.71526600
    8 h                    1.0000    -0.03498349     3.44727006    -0.30253864

      Atomic Mass 
      ----------- 

      li                 7.016000
      h                  1.007825


 Effective nuclear repulsion energy (a.u.)      19.9428490555

            Nuclear Dipole moment (a.u.) 
            ----------------------------
        X                 Y               Z
 ---------------- ---------------- ----------------
    -0.0003025706     0.0417469950     0.0015805880


                                 NWChem DFT Module
                                 -----------------



  Caching 1-el integrals 
   Time after variat. SCF:     17.6
   Time prior to 1st pass:     17.6


         Total DFT energy =      -31.933960585216
      One electron energy =      -78.793952975300
           Coulomb energy =       35.307035579722
    Exchange-Corr. energy =       -8.389892245112
 Nuclear repulsion energy =       19.942849055474

 Numeric. integr. density =       14.999986572694

     Total iterative time =      3.6s



     --------------------------
     Expectation value of S2:  
     --------------------------
      <S2> =      0.7512 (Exact =     0.7500)

  int_init: cando_txs set to always be  F
  intd_init: cando_txs set to always be  F


                         DFT ENERGY GRADIENTS

    atom               coordinates                        gradient
                 x          y          z           x          y          z
   1 li      0.022144  -1.780627   2.708483    0.000054  -0.000339  -0.000689
   2 h      -2.636531   0.037976   1.007413   -0.001188   0.000668   0.000634
   3 h      -0.043983   6.044006  -1.961622    0.000016   0.000264  -0.001078
   4 h       2.631908   0.101726   1.003867    0.001144   0.000761   0.000630
   5 li      3.586028  -2.387548  -1.354318   -0.000478  -0.000574  -0.000187
   6 li     -0.029511   2.417451   0.172037    0.000016  -0.000789   0.000192
   7 li     -3.540523  -2.468063  -1.351657    0.000443  -0.000552  -0.000233
   8 h      -0.066109   6.514396  -0.571715   -0.000008   0.000560   0.000730

  no constraints, skipping    0.0000000000000000     

  Step       Energy      Delta E   Gmax     Grms     Xrms     Xmax   Walltime
  ---- ---------------- -------- -------- -------- -------- -------- --------
@    1     -31.93396059 -1.7D-04  0.00094  0.00019  0.00653  0.01907     23.9
                                                                    



                                Z-matrix (autoz)
                                -------- 

 Units are Angstrom for bonds and degrees for angles

      Type          Name      I     J     K     L     M      Value     Gradient
      ----------- --------  ----- ----- ----- ----- ----- ---------- ----------
    1 Stretch                  1     2                       1.92765    0.00017
    2 Stretch                  1     4                       1.92695    0.00016
    3 Stretch                  1     5                       2.87787    0.00006
    4 Stretch                  1     6                       2.59567    0.00022
    5 Stretch                  1     7                       2.88146    0.00009
    6 Stretch                  2     6                       1.91941    0.00023
    7 Stretch                  2     7                       1.88306    0.00025
    8 Stretch                  3     8                       0.77657    0.00094
    9 Stretch                  4     5                       1.88344    0.00023
   10 Stretch                  4     6                       1.91805    0.00020
   11 Stretch                  6     8                       2.20353    0.00087
   12 Bend                     1     2     6                84.86377   -0.00004
   13 Bend                     1     2     7                98.24485   -0.00018
   14 Bend                     1     4     5                98.09103   -0.00019
   15 Bend                     1     4     6                84.91990   -0.00002
   16 Bend                     1     5     4                41.52221    0.00008
   17 Bend                     1     6     8               159.15003    0.00006
   18 Bend                     1     6     2                47.70236   -0.00000
   19 Bend                     1     6     4                47.68494   -0.00000
   20 Bend                     1     7     2                41.45790    0.00007
   21 Bend                     2     1     4                92.65995    0.00007
   22 Bend                     2     1     5               100.66964    0.00007
   23 Bend                     2     1     6                47.43387    0.00004
   24 Bend                     2     1     7                40.29724    0.00011
   25 Bend                     2     6     8               132.86397   -0.00001
   26 Bend                     2     6     4                93.19733    0.00002
   27 Bend                     3     8     6                81.58546    0.00046
   28 Bend                     4     1     5                40.38676    0.00011
   29 Bend                     4     1     6                47.39516    0.00002
   30 Bend                     4     1     7               100.66860    0.00007
   31 Bend                     4     6     8               132.53480   -0.00001
   32 Bend                     5     1     6                73.50732    0.00008
   33 Bend                     5     1     7                81.81530   -0.00006
   34 Bend                     5     4     6               119.44697   -0.00005
   35 Bend                     6     1     7                73.47621    0.00008
   36 Bend                     6     2     7               119.46586   -0.00005
   37 Torsion                  1     2     6     8        -151.55843   -0.00009
   38 Torsion                  1     2     6     4          15.76084   -0.00006
   39 Torsion                  1     4     6     8         151.62211    0.00009
   40 Torsion                  1     4     6     2         -15.76532    0.00006
   41 Torsion                  1     5     4     6         -88.71361    0.00014
   42 Torsion                  1     6     8     3         178.82809   -0.00000
   43 Torsion                  1     6     2     7         -96.57993    0.00022
   44 Torsion                  1     6     4     5          96.43505   -0.00023
   45 Torsion                  1     7     2     6          88.73760   -0.00015
   46 Torsion                  2     1     4     5        -103.38176   -0.00000
   47 Torsion                  2     1     4     6          15.68846   -0.00005
   48 Torsion                  2     1     5     4          81.45460    0.00007
   49 Torsion                  2     1     6     8         101.24740   -0.00004
   50 Torsion                  2     1     6     4        -158.48427   -0.00009
   51 Torsion                  2     6     8     3         -99.38504    0.00002
   52 Torsion                  2     6     1     4         158.48427    0.00009
   53 Torsion                  2     6     1     5         122.28329   -0.00001
   54 Torsion                  2     6     1     7          36.12695    0.00009
   55 Torsion                  2     6     4     5          80.66973   -0.00017
   56 Torsion                  2     7     1     4         -81.42295   -0.00006
   57 Torsion                  2     7     1     5        -117.31166   -0.00012
   58 Torsion                  2     7     1     6         -42.17416   -0.00003
   59 Torsion                  3     8     6     4          97.91909   -0.00002
   60 Torsion                  4     1     2     6         -15.67847    0.00006
   61 Torsion                  4     1     2     7         103.40095    0.00000
   62 Torsion                  4     1     6     8        -100.26833    0.00005
   63 Torsion                  4     5     1     6          42.13823    0.00002
   64 Torsion                  4     5     1     7         117.24103    0.00012
   65 Torsion                  4     6     1     5         -36.20098   -0.00010
   66 Torsion                  4     6     1     7        -122.35733    0.00000
   67 Torsion                  4     6     2     7         -80.81909    0.00016
   68 Torsion                  5     1     2     6         -55.57788   -0.00006
   69 Torsion                  5     1     2     7          63.50154   -0.00012
   70 Torsion                  5     1     4     6         119.07022   -0.00005
   71 Torsion                  5     1     6     8        -136.46931   -0.00005
   72 Torsion                  5     4     1     6        -119.07022    0.00005
   73 Torsion                  5     4     1     7         -63.57431    0.00011
   74 Torsion                  5     4     6     8        -111.94284   -0.00014
   75 Torsion                  6     1     2     7         119.07942   -0.00005
   76 Torsion                  6     2     1     7        -119.07942    0.00005
   77 Torsion                  6     4     1     7          55.49592    0.00006
   78 Torsion                  7     1     6     8         137.37434    0.00005
   79 Torsion                  7     2     6     8         111.86164    0.00013

  no constraints, skipping    0.0000000000000000     
  no constraints, skipping    0.0000000000000000     
  no constraints, skipping    0.0000000000000000     
  no constraints, skipping    0.0000000000000000     
  no constraints, skipping    0.0000000000000000     
  no constraints, skipping    0.0000000000000000     
  no constraints, skipping    0.0000000000000000     
  no constraints, skipping    0.0000000000000000     

                                 NWChem DFT Module
                                 -----------------



  Caching 1-el integrals 
   Time after variat. SCF:     24.1
   Time prior to 1st pass:     24.1


         Total DFT energy =      -31.933997363426
      One electron energy =      -78.816588293486
           Coulomb energy =       35.318429528412
    Exchange-Corr. energy =       -8.390294296018
 Nuclear repulsion energy =       19.954455697667

 Numeric. integr. density =       14.999986825236

     Total iterative time =      4.5s



     --------------------------
     Expectation value of S2:  
     --------------------------
      <S2> =      0.7512 (Exact =     0.7500)

 Line search: 
     step= 1.00 grad=-3.9D-05 hess= 2.1D-06 energy=    -31.933997 mode=restrict
 new step= 4.00                   predicted energy=    -31.934083
  no constraints, skipping    0.0000000000000000     
  no constraints, skipping    0.0000000000000000     
  no constraints, skipping    0.0000000000000000     
  no constraints, skipping    0.0000000000000000     
  no constraints, skipping    0.0000000000000000     
  no constraints, skipping    0.0000000000000000     
  no constraints, skipping    0.0000000000000000     
  no constraints, skipping    0.0000000000000000     

          --------
          Step   2
          --------


                         Geometry "geometry" -> "geometry"
                         ---------------------------------

 Output coordinates in angstroms (scale by  1.889725989 to convert to a.u.)

  No.       Tag          Charge          X              Y              Z
 ---- ---------------- ---------- -------------- -------------- --------------
    1 li                   3.0000     0.01141479    -0.93681495     1.43208131
    2 h                    1.0000    -1.38645979     0.02426501     0.52860048
    3 h                    1.0000    -0.02343529     3.16352747    -1.02906604
    4 h                    1.0000     1.38417200     0.05695240     0.52689774
    5 li                   3.0000     1.90935447    -1.24677654    -0.71556351
    6 li                   3.0000    -0.01557309     1.28394612     0.08754594
    7 li                   3.0000    -1.88512239    -1.28934578    -0.71396339
    8 h                    1.0000    -0.03487386     3.43130891    -0.30042752

      Atomic Mass 
      ----------- 

      li                 7.016000
      h                  1.007825


 Effective nuclear repulsion energy (a.u.)      19.9897981287

            Nuclear Dipole moment (a.u.) 
            ----------------------------
        X                 Y               Z
 ---------------- ---------------- ----------------
    -0.0007097883     0.2061319294    -0.0069811854


                                 NWChem DFT Module
                                 -----------------



  Caching 1-el integrals 
   Time after variat. SCF:     28.9
   Time prior to 1st pass:     28.9


         Total DFT energy =      -31.934082529230
      One electron energy =      -78.885469845438
           Coulomb energy =       35.353103119833
    Exchange-Corr. energy =       -8.391513932375
 Nuclear repulsion energy =       19.989798128749

 Numeric. integr. density =       14.999987926983

     Total iterative time =      4.5s



     --------------------------
     Expectation value of S2:  
     --------------------------
      <S2> =      0.7512 (Exact =     0.7500)

  int_init: cando_txs set to always be  F
  intd_init: cando_txs set to always be  F


                         DFT ENERGY GRADIENTS

    atom               coordinates                        gradient
                 x          y          z           x          y          z
   1 li      0.021571  -1.770324   2.706241    0.000042  -0.000189  -0.000559
   2 h      -2.620029   0.045854   0.998910   -0.000711   0.000461   0.000411
   3 h      -0.044286   5.978200  -1.944653    0.000017  -0.000107  -0.000855
   4 h       2.615706   0.107624   0.995692    0.000682   0.000523   0.000410
   5 li      3.608157  -2.356066  -1.352219   -0.000375  -0.000360  -0.000077
   6 li     -0.029429   2.426306   0.165438    0.000005  -0.000522   0.000057
   7 li     -3.562365  -2.436510  -1.349195    0.000348  -0.000342  -0.000110
   8 h      -0.065902   6.484234  -0.567726   -0.000008   0.000535   0.000722

  no constraints, skipping    0.0000000000000000     

  Step       Energy      Delta E   Gmax     Grms     Xrms     Xmax   Walltime
  ---- ---------------- -------- -------- -------- -------- -------- --------
@    2     -31.93408253 -1.2D-04  0.00084  0.00012  0.01992  0.06584     36.1
                                                                    



                                Z-matrix (autoz)
                                -------- 

 Units are Angstrom for bonds and degrees for angles

      Type          Name      I     J     K     L     M      Value     Gradient
      ----------- --------  ----- ----- ----- ----- ----- ---------- ----------
    1 Stretch                  1     2                       1.92198    0.00007
    2 Stretch                  1     4                       1.92130    0.00007
    3 Stretch                  1     5                       2.88282   -0.00002
    4 Stretch                  1     6                       2.59621    0.00009
    5 Stretch                  1     7                       2.88559    0.00001
    6 Stretch                  2     6                       1.91328    0.00010
    7 Stretch                  2     7                       1.87569    0.00013
    8 Stretch                  3     8                       0.77637    0.00084
    9 Stretch                  4     5                       1.87596    0.00013
   10 Stretch                  4     6                       1.91255    0.00008
   11 Stretch                  6     8                       2.18222    0.00045
   12 Bend                     1     2     6                85.20811   -0.00002
   13 Bend                     1     2     7                98.89163   -0.00012
   14 Bend                     1     4     5                98.77741   -0.00013
   15 Bend                     1     4     6                85.24711   -0.00001
   16 Bend                     1     5     4                41.19784    0.00005
   17 Bend                     1     6     8               159.04984    0.00004
   18 Bend                     1     6     2                47.53719    0.00000
   19 Bend                     1     6     4                47.51861   -0.00000
   20 Bend                     1     7     2                41.15181    0.00005
   21 Bend                     2     1     4                92.26649    0.00003
   22 Bend                     2     1     5               100.50956    0.00004
   23 Bend                     2     1     6                47.25469    0.00002
   24 Bend                     2     1     7                39.95656    0.00007
   25 Bend                     2     6     8               133.04078   -0.00000
   26 Bend                     2     6     4                92.81160    0.00001
   27 Bend                     3     8     6                80.05645    0.00015
   28 Bend                     4     1     5                40.02475    0.00008
   29 Bend                     4     1     6                47.23429    0.00001
   30 Bend                     4     1     7               100.50972    0.00004
   31 Bend                     4     6     8               132.73581   -0.00000
   32 Bend                     5     1     6                73.32161    0.00005
   33 Bend                     5     1     7                82.27138   -0.00005
   34 Bend                     5     4     6               119.90746   -0.00004
   35 Bend                     6     1     7                73.29247    0.00005
   36 Bend                     6     2     7               119.92520   -0.00004
   37 Torsion                  1     2     6     8        -151.34034   -0.00006
   38 Torsion                  1     2     6     4          15.94858   -0.00004
   39 Torsion                  1     4     6     8         151.39921    0.00006
   40 Torsion                  1     4     6     2         -15.95344    0.00004
   41 Torsion                  1     5     4     6         -89.54694    0.00009
   42 Torsion                  1     6     8     3         178.88958   -0.00000
   43 Torsion                  1     6     2     7         -97.51093    0.00015
   44 Torsion                  1     6     4     5          97.40151   -0.00015
   45 Torsion                  1     7     2     6          89.56983   -0.00009
   46 Torsion                  2     1     4     5        -103.69262    0.00000
   47 Torsion                  2     1     4     6          15.87247   -0.00004
   48 Torsion                  2     1     5     4          80.88899    0.00004
   49 Torsion                  2     1     6     8         101.37801   -0.00003
   50 Torsion                  2     1     6     4        -158.15304   -0.00006
   51 Torsion                  2     6     8     3         -99.40793    0.00001
   52 Torsion                  2     6     1     4         158.15304    0.00006
   53 Torsion                  2     6     1     5         122.42434   -0.00001
   54 Torsion                  2     6     1     7          35.67169    0.00007
   55 Torsion                  2     6     4     5          81.44807   -0.00011
   56 Torsion                  2     7     1     4         -80.86291   -0.00003
   57 Torsion                  2     7     1     5        -116.65457   -0.00008
   58 Torsion                  2     7     1     6         -41.82318   -0.00002
   59 Torsion                  3     8     6     4          98.00250   -0.00001
   60 Torsion                  4     1     2     6         -15.86711    0.00004
   61 Torsion                  4     1     2     7         103.70992    0.00000
   62 Torsion                  4     1     6     8        -100.46896    0.00003
   63 Torsion                  4     5     1     6          41.80454    0.00001
   64 Torsion                  4     5     1     7         116.60374    0.00008
   65 Torsion                  4     6     1     5         -35.72870   -0.00007
   66 Torsion                  4     6     1     7        -122.48135    0.00001
   67 Torsion                  4     6     2     7         -81.56236    0.00010
   68 Torsion                  5     1     2     6         -55.32431   -0.00004
   69 Torsion                  5     1     2     7          64.25272   -0.00008
   70 Torsion                  5     1     4     6         119.56510   -0.00004
   71 Torsion                  5     1     6     8        -136.19766   -0.00004
   72 Torsion                  5     4     1     6        -119.56510    0.00004
   73 Torsion                  5     4     1     7         -64.30569    0.00008
   74 Torsion                  5     4     6     8        -111.19928   -0.00010
   75 Torsion                  6     1     2     7         119.57703   -0.00004
   76 Torsion                  6     2     1     7        -119.57703    0.00004
   77 Torsion                  6     4     1     7          55.25941    0.00004
   78 Torsion                  7     1     6     8         137.04970    0.00004
   79 Torsion                  7     2     6     8         111.14873    0.00009

  no constraints, skipping    0.0000000000000000     
  no constraints, skipping    0.0000000000000000     
  no constraints, skipping    0.0000000000000000     
  no constraints, skipping    0.0000000000000000     
  no constraints, skipping    0.0000000000000000     
  no constraints, skipping    0.0000000000000000     
  no constraints, skipping    0.0000000000000000     
  no constraints, skipping    0.0000000000000000     

                                 NWChem DFT Module
                                 -----------------



  Caching 1-el integrals 
   Time after variat. SCF:     36.4
   Time prior to 1st pass:     36.4


         Total DFT energy =      -31.934142791417
      One electron energy =      -79.002693022340
           Coulomb energy =       35.412024131584
    Exchange-Corr. energy =       -8.393872442842
 Nuclear repulsion energy =       20.050398542181

 Numeric. integr. density =       14.999991264402

     Total iterative time =      4.7s



     --------------------------
     Expectation value of S2:  
     --------------------------
      <S2> =      0.7511 (Exact =     0.7500)

 Line search: 
     step= 1.00 grad=-1.2D-04 hess= 5.9D-05 energy=    -31.934143 mode=accept  
 new step= 1.00                   predicted energy=    -31.934143
  no constraints, skipping    0.0000000000000000     
  no constraints, skipping    0.0000000000000000     
  no constraints, skipping    0.0000000000000000     
  no constraints, skipping    0.0000000000000000     
  no constraints, skipping    0.0000000000000000     
  no constraints, skipping    0.0000000000000000     
  no constraints, skipping    0.0000000000000000     
  no constraints, skipping    0.0000000000000000     

          --------
          Step   3
          --------


                         Geometry "geometry" -> "geometry"
                         ---------------------------------

 Output coordinates in angstroms (scale by  1.889725989 to convert to a.u.)

  No.       Tag          Charge          X              Y              Z
 ---- ---------------- ---------- -------------- -------------- --------------
    1 li                   3.0000     0.01098602    -0.93003306     1.43065075
    2 h                    1.0000    -1.37510456     0.02911849     0.52254039
    3 h                    1.0000    -0.02375717     3.12043179    -1.01713879
    4 h                    1.0000     1.37307282     0.06035031     0.52107232
    5 li                   3.0000     1.92571958    -1.22502393    -0.71359095
    6 li                   3.0000    -0.01547103     1.28955845     0.08268784
    7 li                   3.0000    -1.90125187    -1.26751402    -0.71174907
    8 h                    1.0000    -0.03471696     3.41017461    -0.29836748

      Atomic Mass 
      ----------- 

      li                 7.016000
      h                  1.007825


 Effective nuclear repulsion energy (a.u.)      20.0503985422

            Nuclear Dipole moment (a.u.) 
            ----------------------------
        X                 Y               Z
 ---------------- ---------------- ----------------
    -0.0010540256     0.4177003454    -0.0149247441


                                 NWChem DFT Module
                                 -----------------




  The DFT is already converged 

         Total DFT energy =    -31.934142791417

  int_init: cando_txs set to always be  F
  intd_init: cando_txs set to always be  F


                         DFT ENERGY GRADIENTS

    atom               coordinates                        gradient
                 x          y          z           x          y          z
   1 li      0.020761  -1.757508   2.703538    0.000026   0.000028  -0.000404
   2 h      -2.598571   0.055026   0.987458   -0.000074   0.000159   0.000090
   3 h      -0.044895   5.896761  -1.922114    0.000011  -0.000447   0.000012
   4 h       2.594731   0.114046   0.984684    0.000067   0.000178   0.000094
   5 li      3.639082  -2.314960  -1.348491   -0.000260  -0.000052   0.000098
   6 li     -0.029236   2.436912   0.156257   -0.000013  -0.000069  -0.000164
   7 li     -3.592845  -2.395254  -1.345011    0.000241  -0.000040   0.000081
   8 h      -0.065606   6.444296  -0.563833    0.000001   0.000243   0.000192

  no constraints, skipping    0.0000000000000000     

  Step       Energy      Delta E   Gmax     Grms     Xrms     Xmax   Walltime
  ---- ---------------- -------- -------- -------- -------- -------- --------
@    3     -31.93414279 -6.0D-05  0.00032  0.00006  0.02554  0.08127     43.9
                                                                    



                                Z-matrix (autoz)
                                -------- 

 Units are Angstrom for bonds and degrees for angles

      Type          Name      I     J     K     L     M      Value     Gradient
      ----------- --------  ----- ----- ----- ----- ----- ---------- ----------
    1 Stretch                  1     2                       1.91465   -0.00006
    2 Stretch                  1     4                       1.91402   -0.00006
    3 Stretch                  1     5                       2.88981   -0.00014
    4 Stretch                  1     6                       2.59698   -0.00008
    5 Stretch                  1     7                       2.89144   -0.00012
    6 Stretch                  2     6                       1.90546   -0.00008
    7 Stretch                  2     7                       1.86589   -0.00003
    8 Stretch                  3     8                       0.77505    0.00015
    9 Stretch                  4     5                       1.86601   -0.00004
   10 Stretch                  4     6                       1.90557   -0.00008
   11 Stretch                  6     8                       2.15467   -0.00024
   12 Bend                     1     2     6                85.65837    0.00001
   13 Bend                     1     2     7                99.77417   -0.00004
   14 Bend                     1     4     5                99.71609   -0.00005
   15 Bend                     1     4     6                85.67298    0.00001
   16 Bend                     1     5     4                40.75561    0.00002
   17 Bend                     1     6     8               158.91726    0.00001
   18 Bend                     1     6     2                47.31949    0.00000
   19 Bend                     1     6     4                47.30026   -0.00000
   20 Bend                     1     7     2                40.73541    0.00002
   21 Bend                     2     1     4                91.75214   -0.00002
   22 Bend                     2     1     5               100.30441   -0.00001
   23 Bend                     2     1     6                47.02215   -0.00001
   24 Bend                     2     1     7                39.49042    0.00003
   25 Bend                     2     6     8               133.27377   -0.00000
   26 Bend                     2     6     4                92.30040    0.00000
   27 Bend                     3     8     6                78.22631   -0.00032
   28 Bend                     4     1     5                39.52829    0.00003
   29 Bend                     4     1     6                47.02676   -0.00001
   30 Bend                     4     1     7               100.30682   -0.00001
   31 Bend                     4     6     8               133.00496   -0.00000
   32 Bend                     5     1     6                73.07376    0.00000
   33 Bend                     5     1     7                82.90572   -0.00004
   34 Bend                     5     4     6               120.52617   -0.00002
   35 Bend                     6     1     7                73.04805    0.00000
   36 Bend                     6     2     7               120.54292   -0.00002
   37 Torsion                  1     2     6     8        -151.04979   -0.00002
   38 Torsion                  1     2     6     4          16.20548   -0.00001
   39 Torsion                  1     4     6     8         151.10147    0.00001
   40 Torsion                  1     4     6     2         -16.21063    0.00001
   41 Torsion                  1     5     4     6         -90.69325    0.00002
   42 Torsion                  1     6     8     3         178.98379   -0.00000
   43 Torsion                  1     6     2     7         -98.79415    0.00005
   44 Torsion                  1     6     4     5          98.73502   -0.00005
   45 Torsion                  1     7     2     6          90.71347   -0.00002
   46 Torsion                  2     1     4     5        -104.12935    0.00000
   47 Torsion                  2     1     4     6          16.12510   -0.00002
   48 Torsion                  2     1     5     4          80.12473   -0.00000
   49 Torsion                  2     1     6     8         101.55127   -0.00001
   50 Torsion                  2     1     6     4        -157.70093   -0.00002
   51 Torsion                  2     6     8     3         -99.42723    0.00000
   52 Torsion                  2     6     1     4         157.70093    0.00002
   53 Torsion                  2     6     1     5         122.62472   -0.00002
   54 Torsion                  2     6     1     7          35.04314    0.00003
   55 Torsion                  2     6     4     5          82.52439   -0.00004
   56 Torsion                  2     7     1     4         -80.10669    0.00000
   57 Torsion                  2     7     1     5        -115.75189   -0.00002
   58 Torsion                  2     7     1     6         -41.34343   -0.00000
   59 Torsion                  3     8     6     4          98.11594   -0.00000
   60 Torsion                  4     1     2     6         -16.12635    0.00002
   61 Torsion                  4     1     2     7         104.14357   -0.00000
   62 Torsion                  4     1     6     8        -100.74781    0.00001
   63 Torsion                  4     5     1     6          41.34826   -0.00000
   64 Torsion                  4     5     1     7         115.72868    0.00002
   65 Torsion                  4     6     1     5         -35.07620   -0.00003
   66 Torsion                  4     6     1     7        -122.65779    0.00001
   67 Torsion                  4     6     2     7         -82.58867    0.00003
   68 Torsion                  5     1     2     6         -54.97919   -0.00001
   69 Torsion                  5     1     2     7          65.29072   -0.00003
   70 Torsion                  5     1     4     6         120.25446   -0.00002
   71 Torsion                  5     1     6     8        -135.82401   -0.00002
   72 Torsion                  5     4     1     6        -120.25446    0.00002
   73 Torsion                  5     4     1     7         -65.31601    0.00003
   74 Torsion                  5     4     6     8        -110.16350   -0.00004
   75 Torsion                  6     1     2     7         120.26992   -0.00002
   76 Torsion                  6     2     1     7        -120.26992    0.00002
   77 Torsion                  6     4     1     7          54.93845    0.00001
   78 Torsion                  7     1     6     8         136.59440    0.00002
   79 Torsion                  7     2     6     8         110.15607    0.00003

  no constraints, skipping    0.0000000000000000     
  no constraints, skipping    0.0000000000000000     
  no constraints, skipping    0.0000000000000000     
  no constraints, skipping    0.0000000000000000     

                                 NWChem DFT Module
                                 -----------------



  Caching 1-el integrals 
   Time after variat. SCF:     44.1
   Time prior to 1st pass:     44.1


         Total DFT energy =      -31.934146992246
      One electron energy =      -78.986917524224
           Coulomb energy =       35.404308546985
    Exchange-Corr. energy =       -8.393742463397
 Nuclear repulsion energy =       20.042204448390

 Numeric. integr. density =       14.999991323927

     Total iterative time =      3.3s



     --------------------------
     Expectation value of S2:  
     --------------------------
      <S2> =      0.7511 (Exact =     0.7500)

 Line search: 
     step= 1.00 grad=-4.8D-06 hess= 6.3D-07 energy=    -31.934147 mode=accept  
 new step= 1.00                   predicted energy=    -31.934147
  no constraints, skipping    0.0000000000000000     
  no constraints, skipping    0.0000000000000000     
  no constraints, skipping    0.0000000000000000     
  no constraints, skipping    0.0000000000000000     

          --------
          Step   4
          --------


                         Geometry "geometry" -> "geometry"
                         ---------------------------------

 Output coordinates in angstroms (scale by  1.889725989 to convert to a.u.)

  No.       Tag          Charge          X              Y              Z
 ---- ---------------- ---------- -------------- -------------- --------------
    1 li                   3.0000     0.01098149    -0.93112166     1.43096472
    2 h                    1.0000    -1.37557297     0.02806763     0.52292109
    3 h                    1.0000    -0.02384381     3.12580445    -1.01874919
    4 h                    1.0000     1.37356780     0.05928688     0.52145925
    5 li                   3.0000     1.92621453    -1.22642202    -0.71331879
    6 li                   3.0000    -0.01543557     1.28869927     0.08300138
    7 li                   3.0000    -1.90171378    -1.26890612    -0.71148320
    8 h                    1.0000    -0.03472088     3.41165421    -0.29869024

      Atomic Mass 
      ----------- 

      li                 7.016000
      h                  1.007825


 Effective nuclear repulsion energy (a.u.)      20.0422044484

            Nuclear Dipole moment (a.u.) 
            ----------------------------
        X                 Y               Z
 ---------------- ---------------- ----------------
    -0.0008122287     0.3997934011    -0.0105196668


                                 NWChem DFT Module
                                 -----------------




  The DFT is already converged 

         Total DFT energy =    -31.934146992246

  int_init: cando_txs set to always be  F
  intd_init: cando_txs set to always be  F


                         DFT ENERGY GRADIENTS

    atom               coordinates                        gradient
                 x          y          z           x          y          z
   1 li      0.020752  -1.759565   2.704131    0.000026   0.000029  -0.000394
   2 h      -2.599456   0.053040   0.988178   -0.000100   0.000153   0.000100
   3 h      -0.045058   5.906914  -1.925157    0.000007  -0.000294   0.000153
   4 h       2.595667   0.112036   0.985415    0.000093   0.000173   0.000104
   5 li      3.640018  -2.317602  -1.347977   -0.000251  -0.000059   0.000086
   6 li     -0.029169   2.435289   0.156850   -0.000012  -0.000118  -0.000124
   7 li     -3.593718  -2.397885  -1.344508    0.000233  -0.000048   0.000069
   8 h      -0.065613   6.447092  -0.564443    0.000004   0.000163   0.000006

  no constraints, skipping    0.0000000000000000     

  Step       Energy      Delta E   Gmax     Grms     Xrms     Xmax   Walltime
  ---- ---------------- -------- -------- -------- -------- -------- --------
@    4     -31.93414699 -4.2D-06  0.00026  0.00005  0.00254  0.01016     50.4
                                                                    



                                Z-matrix (autoz)
                                -------- 

 Units are Angstrom for bonds and degrees for angles

      Type          Name      I     J     K     L     M      Value     Gradient
      ----------- --------  ----- ----- ----- ----- ----- ---------- ----------
    1 Stretch                  1     2                       1.91497   -0.00005
    2 Stretch                  1     4                       1.91435   -0.00006
    3 Stretch                  1     5                       2.89020   -0.00012
    4 Stretch                  1     6                       2.59717   -0.00007
    5 Stretch                  1     7                       2.89181   -0.00011
    6 Stretch                  2     6                       1.90596   -0.00007
    7 Stretch                  2     7                       1.86620   -0.00002
    8 Stretch                  3     8                       0.77480   -0.00003
    9 Stretch                  4     5                       1.86632   -0.00003
   10 Stretch                  4     6                       1.90605   -0.00007
   11 Stretch                  6     8                       2.15708   -0.00016
   12 Bend                     1     2     6                85.64346    0.00001
   13 Bend                     1     2     7                99.76892   -0.00004
   14 Bend                     1     4     5                99.71158   -0.00005
   15 Bend                     1     4     6                85.65827    0.00001
   16 Bend                     1     5     4                40.75817    0.00002
   17 Bend                     1     6     8               158.92554    0.00001
   18 Bend                     1     6     2                47.32406    0.00000
   19 Bend                     1     6     4                47.30520   -0.00000
   20 Bend                     1     7     2                40.73814    0.00002
   21 Bend                     2     1     4                91.77327   -0.00001
   22 Bend                     2     1     5               100.32222   -0.00001
   23 Bend                     2     1     6                47.03248   -0.00001
   24 Bend                     2     1     7                39.49294    0.00003
   25 Bend                     2     6     8               133.26805   -0.00000
   26 Bend                     2     6     4                92.31136    0.00000
   27 Bend                     3     8     6                78.53460   -0.00026
   28 Bend                     4     1     5                39.53026    0.00003
   29 Bend                     4     1     6                47.03653   -0.00001
   30 Bend                     4     1     7               100.32470   -0.00001
   31 Bend                     4     6     8               133.00171   -0.00000
   32 Bend                     5     1     6                73.08251    0.00001
   33 Bend                     5     1     7                82.91759   -0.00004
   34 Bend                     5     4     6               120.52677   -0.00002
   35 Bend                     6     1     7                73.05760    0.00001
   36 Bend                     6     2     7               120.54337   -0.00002
   37 Torsion                  1     2     6     8        -151.06370   -0.00002
   38 Torsion                  1     2     6     4          16.20060   -0.00001
   39 Torsion                  1     4     6     8         151.11492    0.00001
   40 Torsion                  1     4     6     2         -16.20565    0.00001
   41 Torsion                  1     5     4     6         -90.67341    0.00002
   42 Torsion                  1     6     8     3         178.99168   -0.00000
   43 Torsion                  1     6     2     7         -98.77933    0.00005
   44 Torsion                  1     6     4     5          98.72119   -0.00005
   45 Torsion                  1     7     2     6          90.69292   -0.00002
   46 Torsion                  2     1     4     5        -104.13097    0.00001
   47 Torsion                  2     1     4     6          16.12178   -0.00001
   48 Torsion                  2     1     5     4          80.13728    0.00000
   49 Torsion                  2     1     6     8         101.54302   -0.00001
   50 Torsion                  2     1     6     4        -157.70986   -0.00002
   51 Torsion                  2     6     8     3         -99.41590    0.00000
   52 Torsion                  2     6     1     4         157.70986    0.00002
   53 Torsion                  2     6     1     5         122.63315   -0.00001
   54 Torsion                  2     6     1     7          35.04403    0.00003
   55 Torsion                  2     6     4     5          82.51553   -0.00004
   56 Torsion                  2     7     1     4         -80.11937   -0.00000
   57 Torsion                  2     7     1     5        -115.76418   -0.00002
   58 Torsion                  2     7     1     6         -41.35032   -0.00000
   59 Torsion                  3     8     6     4          98.11355   -0.00000
   60 Torsion                  4     1     2     6         -16.12287    0.00002
   61 Torsion                  4     1     2     7         104.14513   -0.00000
   62 Torsion                  4     1     6     8        -100.74712    0.00001
   63 Torsion                  4     5     1     6          41.35480    0.00000
   64 Torsion                  4     5     1     7         115.74150    0.00002
   65 Torsion                  4     6     1     5         -35.07671   -0.00003
   66 Torsion                  4     6     1     7        -122.66583    0.00001
   67 Torsion                  4     6     2     7         -82.57873    0.00003
   68 Torsion                  5     1     2     6         -54.97991   -0.00001
   69 Torsion                  5     1     2     7          65.28809   -0.00003
   70 Torsion                  5     1     4     6         120.25274   -0.00002
   71 Torsion                  5     1     6     8        -135.82383   -0.00002
   72 Torsion                  5     4     1     6        -120.25274    0.00002
   73 Torsion                  5     4     1     7         -65.31286    0.00003
   74 Torsion                  5     4     6     8        -110.16390   -0.00004
   75 Torsion                  6     1     2     7         120.26800   -0.00002
   76 Torsion                  6     2     1     7        -120.26800    0.00002
   77 Torsion                  6     4     1     7          54.93988    0.00001
   78 Torsion                  7     1     6     8         136.58705    0.00002
   79 Torsion                  7     2     6     8         110.15697    0.00003

  no constraints, skipping    0.0000000000000000     
  no constraints, skipping    0.0000000000000000     
  no constraints, skipping    0.0000000000000000     
  no constraints, skipping    0.0000000000000000     
  no constraints, skipping    0.0000000000000000     
  no constraints, skipping    0.0000000000000000     
  no constraints, skipping    0.0000000000000000     
  no constraints, skipping    0.0000000000000000     

                                 NWChem DFT Module
                                 -----------------



  Caching 1-el integrals 
   Time after variat. SCF:     50.6
   Time prior to 1st pass:     50.7


         Total DFT energy =      -31.934158967311
      One electron energy =      -78.932995397140
           Coulomb energy =       35.377738977348
    Exchange-Corr. energy =       -8.393214275739
 Nuclear repulsion energy =       20.014311728219

 Numeric. integr. density =       14.999992250786

     Total iterative time =      5.7s



     --------------------------
     Expectation value of S2:  
     --------------------------
      <S2> =      0.7511 (Exact =     0.7500)

 Line search: 
     step= 1.00 grad=-1.9D-05 hess= 6.6D-06 energy=    -31.934159 mode=downhill
 new step= 1.40                   predicted energy=    -31.934160
  no constraints, skipping    0.0000000000000000     
  no constraints, skipping    0.0000000000000000     
  no constraints, skipping    0.0000000000000000     
  no constraints, skipping    0.0000000000000000     
  no constraints, skipping    0.0000000000000000     
  no constraints, skipping    0.0000000000000000     
  no constraints, skipping    0.0000000000000000     
  no constraints, skipping    0.0000000000000000     

          --------
          Step   5
          --------


                         Geometry "geometry" -> "geometry"
                         ---------------------------------

 Output coordinates in angstroms (scale by  1.889725989 to convert to a.u.)

  No.       Tag          Charge          X              Y              Z
 ---- ---------------- ---------- -------------- -------------- --------------
    1 li                   3.0000     0.01078429    -0.93667621     1.43263431
    2 h                    1.0000    -1.37499900     0.02233798     0.52352635
    3 h                    1.0000    -0.02461167     3.14846504    -1.02673685
    4 h                    1.0000     1.37328982     0.05292220     0.52219485
    5 li                   3.0000     1.93594331    -1.22847040    -0.71068763
    6 li                   3.0000    -0.01512485     1.28469226     0.08374992
    7 li                   3.0000    -1.91111095    -1.27086079    -0.70882206
    8 h                    1.0000    -0.03469411     3.41465254    -0.29975387

      Atomic Mass 
      ----------- 

      li                 7.016000
      h                  1.007825


 Effective nuclear repulsion energy (a.u.)      20.0031487718

            Nuclear Dipole moment (a.u.) 
            ----------------------------
        X                 Y               Z
 ---------------- ---------------- ----------------
     0.0008700843     0.3485266856     0.0186215279


                                 NWChem DFT Module
                                 -----------------



  Caching 1-el integrals 
   Time after variat. SCF:     56.8
   Time prior to 1st pass:     56.8


         Total DFT energy =      -31.934160131816
      One electron energy =      -78.911408221321
           Coulomb energy =       35.367105787571
    Exchange-Corr. energy =       -8.393006469893
 Nuclear repulsion energy =       20.003148771827

 Numeric. integr. density =       14.999992659469

     Total iterative time =      4.3s



     --------------------------
     Expectation value of S2:  
     --------------------------
      <S2> =      0.7511 (Exact =     0.7500)

  int_init: cando_txs set to always be  F
  intd_init: cando_txs set to always be  F


                         DFT ENERGY GRADIENTS

    atom               coordinates                        gradient
                 x          y          z           x          y          z
   1 li      0.020379  -1.770061   2.707286    0.000017   0.000058  -0.000233
   2 h      -2.598371   0.042213   0.989321   -0.000079   0.000025   0.000059
   3 h      -0.046509   5.949736  -1.940251   -0.000001   0.000203   0.000361
   4 h       2.595141   0.100008   0.986805    0.000079   0.000034   0.000062
   5 li      3.658402  -2.321472  -1.343005   -0.000138  -0.000025   0.000059
   6 li     -0.028582   2.427716   0.158264   -0.000015  -0.000220   0.000041
   7 li     -3.611476  -2.401579  -1.339479    0.000126  -0.000019   0.000049
   8 h      -0.065562   6.452758  -0.566453    0.000010  -0.000056  -0.000398

  no constraints, skipping    0.0000000000000000     

  Step       Energy      Delta E   Gmax     Grms     Xrms     Xmax   Walltime
  ---- ---------------- -------- -------- -------- -------- -------- --------
@    5     -31.93416013 -1.3D-05  0.00041  0.00005  0.01169  0.04286     64.0
                                                                    



                                Z-matrix (autoz)
[...]
           4    -0.09688    -0.02977     0.03491    -0.05472    -0.00687     0.20137
           5     0.12826    -0.05264    -0.05549    -0.04342    -0.00120     0.17372
           6     0.09106    -0.04159     0.01722     0.08140     0.01922    -0.60916
           7    -0.00672     0.00235    -0.00305    -0.00532    -0.00451    -0.00499
           8     0.00407    -0.08094     0.47976     0.38498     0.59253    -0.01017
           9     0.00068     0.02557    -0.18166    -0.14883    -0.36559     0.00713
          10    -0.09316     0.03144    -0.03360     0.05600     0.01133     0.20666
          11    -0.13071    -0.04833    -0.05604    -0.04358    -0.01011    -0.16775
          12    -0.09264    -0.04221     0.01751     0.08576     0.03778     0.61056
          13     0.14450     0.13411     0.03621    -0.01439     0.00088     0.00811
          14    -0.03213    -0.08325    -0.01210     0.00688    -0.00341    -0.02416
          15    -0.13419    -0.11893    -0.03454     0.01420    -0.00310    -0.05198
          16    -0.02350    -0.00185    -0.00130     0.00212    -0.00214    -0.09099
          17    -0.00115     0.02803     0.06613    -0.23274     0.02200    -0.00034
          18     0.00159     0.13197    -0.05297     0.09898     0.03626    -0.00113
          19     0.14127    -0.13479    -0.03623     0.01288    -0.00057     0.00750
          20     0.03215    -0.08482    -0.01248     0.00825    -0.00289     0.02353
          21     0.13174    -0.12224    -0.03498     0.01244    -0.00170     0.05179
          22    -0.01393     0.00085    -0.00523    -0.00617     0.00744    -0.01070
          23     0.00333    -0.02082     0.47042     0.38075    -0.69211     0.00988
          24     0.00098     0.00257    -0.17468    -0.14411     0.11589    -0.00017

                   19          20          21          22          23          24
 
 P.Frequency      675.70      752.02      811.35      891.36     1066.37     4239.96
 
           1    -0.00008    -0.09994     0.00037    -0.03495    -0.00002    -0.00001
           2     0.02695    -0.00068    -0.05192    -0.00036     0.00437     0.00005
           3    -0.06832    -0.00050     0.02280     0.00013     0.01514     0.00001
           4    -0.14480     0.42497    -0.44464     0.47259    -0.52256     0.00085
           5    -0.22595    -0.52253     0.50710     0.40089    -0.36787     0.00201
           6     0.59506     0.01655     0.10854     0.26324    -0.26140    -0.00089
           7     0.00216     0.01357    -0.00042    -0.00501     0.00022     0.00492
           8    -0.03121     0.00186    -0.00699    -0.00035     0.00187    -0.24900
           9     0.02149    -0.00227     0.00626     0.00033    -0.00329    -0.65884
          10     0.14552     0.41392     0.43441     0.48244     0.52879    -0.00077
          11    -0.22858     0.52423     0.52206    -0.38882    -0.35789     0.00232
          12     0.59124    -0.01099     0.10686    -0.26491    -0.26095    -0.00111
          13     0.00747    -0.00096     0.00316    -0.01936    -0.01404     0.00000
          14    -0.02571    -0.03119    -0.03067     0.04028     0.03287    -0.00009
          15    -0.02110    -0.01987    -0.02609     0.03830     0.03000    -0.00001
          16    -0.00092    -0.02087     0.00051    -0.06336    -0.00027     0.00000
          17     0.09207    -0.00007    -0.03353    -0.00101     0.03302     0.00003
          18    -0.06352     0.00035    -0.00277     0.00010     0.00045     0.00009
          19    -0.00684    -0.00170    -0.00257    -0.01867     0.01343    -0.00001
          20    -0.02666     0.03165    -0.03026    -0.04069     0.03308    -0.00007
          21    -0.02130     0.01975    -0.02618    -0.03833     0.03011    -0.00002
          22    -0.00029     0.00704     0.00038    -0.00091    -0.00021    -0.00487
          23     0.02180    -0.00155    -0.00314     0.00069     0.00449     0.24522
          24     0.00518    -0.00137     0.00279    -0.00001    -0.00133     0.66028



 ----------------------------------------------------------------------------
 Normal Eigenvalue ||    Projected Derivative Dipole Moments (debye/angs)
  Mode   [cm**-1]  ||      [d/dqX]             [d/dqY]           [d/dqZ]
 ------ ---------- || ------------------ ------------------ -----------------
    1      -71.339 ||       0.085               0.020            -0.023
    2        0.000 ||      -0.038               0.097            -0.367
    3        0.000 ||       0.207               0.618            -0.386
    4        0.000 ||      -0.272               0.452             0.079
    5        0.000 ||       0.417               0.342             0.303
    6        0.000 ||       0.711              -0.209            -0.087
    7        0.000 ||       0.039               0.163             0.573
    8       47.589 ||      -0.014               0.014            -0.011
    9       76.977 ||      -0.006               0.456            -0.564
   10      102.053 ||      -0.094               0.016            -0.015
   11      151.320 ||      -0.003               0.613            -0.530
   12      228.666 ||      -0.256              -0.002             0.001
   13      280.583 ||       1.257               0.008             0.006
   14      285.232 ||      -0.013               0.172             0.621
   15      329.840 ||      -0.005               0.235             0.316
   16      442.871 ||       0.003              -0.981            -0.010
   17      570.838 ||      -0.009              -0.208            -0.438
   18      629.733 ||      -1.281              -0.014             0.000
   19      675.698 ||       0.023              -0.619            -0.897
   20      752.019 ||      -2.947              -0.023             0.000
   21      811.349 ||       0.021              -2.700            -1.756
   22      891.360 ||      -0.568              -0.009            -0.002
   23     1066.369 ||      -0.018               1.940             1.422
   24     4239.964 ||      -0.005               0.498            -0.192
 ----------------------------------------------------------------------------



  
  
 ----------------------------------------------------------------------------
 Normal Eigenvalue ||           Projected Infra Red Intensities
  Mode   [cm**-1]  || [atomic units] [(debye/angs)**2] [(KM/mol)] [arbitrary]
 ------ ---------- || -------------- ----------------- ---------- -----------
    1      -71.339 ||    0.000354           0.008         0.345       0.056
    2        0.000 ||    0.006311           0.146         6.152       0.993
    3        0.000 ||    0.024836           0.573        24.212       3.907
    4        0.000 ||    0.012344           0.285        12.034       1.942
    5        0.000 ||    0.016583           0.383        16.166       2.609
    6        0.000 ||    0.024166           0.558        23.558       3.802
    7        0.000 ||    0.015442           0.356        15.054       2.429
    8       47.589 ||    0.000022           0.001         0.021       0.003
    9       76.977 ||    0.022791           0.526        22.218       3.586
   10      102.053 ||    0.000407           0.009         0.397       0.064
   11      151.320 ||    0.028487           0.657        27.771       4.482
   12      228.666 ||    0.002851           0.066         2.779       0.449
   13      280.583 ||    0.068469           1.580        66.747      10.772
   14      285.232 ||    0.017976           0.415        17.524       2.828
   15      329.840 ||    0.006740           0.155         6.571       1.060
   16      442.871 ||    0.041727           0.963        40.678       6.565
   17      570.838 ||    0.010191           0.235         9.934       1.603
   18      629.733 ||    0.071085           1.640        69.297      11.183
   19      675.698 ||    0.051522           1.189        50.226       8.106
   20      752.019 ||    0.376412           8.684       366.945      59.219
   21      811.349 ||    0.449580          10.372       438.273      70.730
   22      891.360 ||    0.013983           0.323        13.631       2.200
   23     1066.369 ||    0.250885           5.788       244.575      39.471
   24     4239.964 ||    0.012340           0.285        12.029       1.941
 ----------------------------------------------------------------------------






 ===============================================================================
      Negative Nuclear Hessian Mode    1  Eigenvalue =    -71.34 cm**(-1)
 -------------------------------------------------------------------------------
   Raw step length:  0.524 angstroms ;  The Raw step for this mode is:
    1 li                   3.0000    -0.00604422    -0.00369993     0.00143041
    2 h                    1.0000    -0.00675742    -0.00865349    -0.00149814
    3 h                    1.0000    -0.31597853    -0.01863457    -0.01885264
    4 h                    1.0000    -0.00656728     0.00491243     0.01084619
    5 li                   3.0000     0.00242566     0.01556705     0.00172856
    6 li                   3.0000    -0.01100529    -0.00131752     0.00558460
    7 li                   3.0000     0.00220138    -0.00722110    -0.00449266
    8 h                    1.0000     0.41578257    -0.00079583    -0.02008821


  Geometry after  100.0% step for mode  1; Step length =  0.524 angstroms 
   Maximum component (any atom: x,y, or z) displacement:  0.786
    1 li                   3.0000     0.00398269    -0.94736835     1.43368591
    2 h                    1.0000    -1.37962688     0.01555587     0.52479494
    3 h                    1.0000    -0.34538559     3.11541151    -1.04938710
    4 h                    1.0000     1.36659301     0.05650776     0.53689167
    5 li                   3.0000     1.95049858    -1.20169373    -0.71117653
    6 li                   3.0000    -0.02337008     1.28623694     0.09832963
    7 li                   3.0000    -1.92033447    -1.26309770    -0.71708819
    8 h                    1.0000     0.38117645     3.40566739    -0.32528720


  Geometry after -100.0% step for mode  1; Step length =  0.524 angstroms 
   Maximum component (any atom: x,y, or z) displacement:  0.786
    1 li                   3.0000     0.01607113    -0.93996849     1.43082509
    2 h                    1.0000    -1.36611204     0.03286285     0.52779123
    3 h                    1.0000     0.28657147     3.15268065    -1.01168181
    4 h                    1.0000     1.37972757     0.04668289     0.51519928
    5 li                   3.0000     1.94564726    -1.23282784    -0.71463365
    6 li                   3.0000    -0.00135950     1.28887198     0.08716042
    7 li                   3.0000    -1.92473724    -1.24865550    -0.70810287
    8 h                    1.0000    -0.45038869     3.40725905    -0.28511078


  Geometry after   50.0% step for mode  1; Step length =  0.262 angstroms 
   Maximum component (any atom: x,y, or z) displacement:  0.393
    1 li                   3.0000     0.00700480    -0.94551839     1.43297070
    2 h                    1.0000    -1.37624817     0.01988262     0.52554401
    3 h                    1.0000    -0.18739633     3.12472880    -1.03996078
    4 h                    1.0000     1.36987665     0.05405154     0.53146857
    5 li                   3.0000     1.94928575    -1.20947725    -0.71204081
    6 li                   3.0000    -0.01786743     1.28689570     0.09553733
    7 li                   3.0000    -1.92143517    -1.25948715    -0.71484186
    8 h                    1.0000     0.17328517     3.40606530    -0.31524309


  Geometry after  -50.0% step for mode  1; Step length =  0.262 angstroms 
   Maximum component (any atom: x,y, or z) displacement:  0.393
    1 li                   3.0000     0.01304902    -0.94181846     1.43154029
    2 h                    1.0000    -1.36949075     0.02853611     0.52704216
    3 h                    1.0000     0.12858220     3.14336337    -1.02110813
    4 h                    1.0000     1.37644393     0.04913911     0.52062238
    5 li                   3.0000     1.94686009    -1.22504431    -0.71376937
    6 li                   3.0000    -0.00686214     1.28821322     0.08995272
    7 li                   3.0000    -1.92363655    -1.25226605    -0.71034920
    8 h                    1.0000    -0.24249740     3.40686113    -0.29515489


  Geometry after   25.5% step for mode  1; Step length =  0.133 angstroms 
   Maximum component (any atom: x,y, or z) displacement:  0.200
    1 li                   3.0000     0.00848838    -0.94461022     1.43261960
    2 h                    1.0000    -1.37458953     0.02200666     0.52591174
    3 h                    1.0000    -0.10983788     3.12930274    -1.03533330
    4 h                    1.0000     1.37148862     0.05284576     0.52880632
    5 li                   3.0000     1.94869036    -1.21329826    -0.71246509
    6 li                   3.0000    -0.01516613     1.28721909     0.09416656
    7 li                   3.0000    -1.92197551    -1.25771470    -0.71373911
    8 h                    1.0000     0.07122933     3.40626064    -0.31031235


  Geometry after  -25.5% step for mode  1; Step length =  0.133 angstroms 
   Maximum component (any atom: x,y, or z) displacement:  0.200
    1 li                   3.0000     0.01156544    -0.94272662     1.43189139
    2 h                    1.0000    -1.37114939     0.02641207     0.52667443
    3 h                    1.0000     0.05102375     3.13878942    -1.02573560
    4 h                    1.0000     1.37483196     0.05034489     0.52328463
    5 li                   3.0000     1.94745548    -1.22122330    -0.71334508
    6 li                   3.0000    -0.00956344     1.28788983     0.09132349
    7 li                   3.0000    -1.92309621    -1.25403850    -0.71145194
    8 h                    1.0000    -0.14044157     3.40666579    -0.30008563


  Geometry after   12.7% step for mode  1; Step length =  0.067 angstroms 
   Maximum component (any atom: x,y, or z) displacement:  0.100
    1 li                   3.0000     0.00925765    -0.94413932     1.43243755
    2 h                    1.0000    -1.37372950     0.02310801     0.52610241
    3 h                    1.0000    -0.06962247     3.13167441    -1.03293388
    4 h                    1.0000     1.37232445     0.05222054     0.52742590
    5 li                   3.0000     1.94838164    -1.21527952    -0.71268509
    6 li                   3.0000    -0.01376546     1.28738677     0.09345579
    7 li                   3.0000    -1.92225568    -1.25679565    -0.71316732
    8 h                    1.0000     0.01831161     3.40636193    -0.30775567


  Geometry after  -12.7% step for mode  1; Step length =  0.067 angstroms 
   Maximum component (any atom: x,y, or z) displacement:  0.100
    1 li                   3.0000     0.01079617    -0.94319752     1.43207345
    2 h                    1.0000    -1.37200943     0.02531071     0.52648376
    3 h                    1.0000     0.01080834     3.13641775    -1.02813503
    4 h                    1.0000     1.37399612     0.05097011     0.52466505
    5 li                   3.0000     1.94776420    -1.21924204    -0.71312509
    6 li                   3.0000    -0.01096411     1.28772214     0.09203426
    7 li                   3.0000    -1.92281603    -1.25495755    -0.71202374
    8 h                    1.0000    -0.08752384     3.40656450    -0.30264231


 vib:animation  F

 Task  times  cpu:      320.5s     wall:      320.5s


                                NWChem Input Module
                                -------------------


 Summary of allocated global arrays
-----------------------------------
  No active global arrays


MA_summarize_allocated_blocks: starting scan ...
MA_summarize_allocated_blocks: scan completed: 0 heap blocks, 0 stack blocks
MA usage statistics:

	allocation statistics:
					      heap	     stack
					      ----	     -----
	current number of blocks	         0	         0
	maximum number of blocks	        29	        69
	current total bytes		         0	         0
	maximum total bytes		 270402232	  42965032
	maximum total K-bytes		    270403	     42966
	maximum total M-bytes		       271	        43


                                     CITATION
                                     --------
                Please cite the following reference when publishing
                           results obtained with NWChem:

          E. Apra, E. J. Bylaska, W. A. de Jong, N. Govind, K. Kowalski,
       T. P. Straatsma, M. Valiev, H. J. J. van Dam, Y. Alexeev, J. Anchell,
       V. Anisimov, F. W. Aquino, R. Atta-Fynn, J. Autschbach, N. P. Bauman,
     J. C. Becca, D. E. Bernholdt, K. Bhaskaran-Nair, S. Bogatko, P. Borowski,
         J. Boschen, J. Brabec, A. Bruner, E. Cauet, Y. Chen, G. N. Chuev,
      C. J. Cramer, J. Daily, M. J. O. Deegan, T. H. Dunning Jr., M. Dupuis,
   K. G. Dyall, G. I. Fann, S. A. Fischer, A. Fonari, H. Fruchtl, L. Gagliardi,
      J. Garza, N. Gawande, S. Ghosh, K. Glaesemann, A. W. Gotz, J. Hammond,
       V. Helms, E. D. Hermes, K. Hirao, S. Hirata, M. Jacquelin, L. Jensen,
   B. G. Johnson, H. Jonsson, R. A. Kendall, M. Klemm, R. Kobayashi, V. Konkov,
      S. Krishnamoorthy, M. Krishnan, Z. Lin, R. D. Lins, R. J. Littlefield,
      A. J. Logsdail, K. Lopata, W. Ma, A. V. Marenich, J. Martin del Campo,
   D. Mejia-Rodriguez, J. E. Moore, J. M. Mullin, T. Nakajima, D. R. Nascimento,
    J. A. Nichols, P. J. Nichols, J. Nieplocha, A. Otero-de-la-Roza, B. Palmer,
    A. Panyala, T. Pirojsirikul, B. Peng, R. Peverati, J. Pittner, L. Pollack,
   R. M. Richard, P. Sadayappan, G. C. Schatz, W. A. Shelton, D. W. Silverstein,
   D. M. A. Smith, T. A. Soares, D. Song, M. Swart, H. L. Taylor, G. S. Thomas,
            V. Tipparaju, D. G. Truhlar, K. Tsemekhman, T. Van Voorhis,
      A. Vazquez-Mayagoitia, P. Verma, O. Villa, A. Vishnu, K. D. Vogiatzis,
        D. Wang, J. H. Weare, M. J. Williamson, T. L. Windus, K. Wolinski,
        A. T. Wong, Q. Wu, C. Yang, Q. Yu, M. Zacharias, Z. Zhang, Y. Zhao,
                                and R. J. Harrison
                        "NWChem: Past, present, and future
                         J. Chem. Phys. 152, 184102 (2020)
                               doi:10.1063/5.0004997

                                      AUTHORS
                                      -------
  E. Apra, E. J. Bylaska, N. Govind, K. Kowalski, M. Valiev, D. Mejia-Rodriguez,
       A. Kunitsa, N. P. Bauman, A. Panyala, W. A. de Jong, T. P. Straatsma,
        H. J. J. van Dam, D. Wang, T. L. Windus, J. Hammond, J. Autschbach,
    K. Bhaskaran-Nair, J. Brabec, K. Lopata, S. A. Fischer, S. Krishnamoorthy,
     M. Jacquelin, W. Ma, M. Klemm, O. Villa, Y. Chen, V. Anisimov, F. Aquino,
    S. Hirata, M. T. Hackler, Eric Hermes, L. Jensen, J. E. Moore, J. C. Becca,
      V. Konjkov, T. Risthaus, M. Malagoli, A. Marenich, A. Otero-de-la-Roza,
        J. Mullin, P. Nichols, R. Peverati, J. Pittner, Y. Zhao, P.-D. Fan,
        A. Fonari, M. J. Williamson, R. J. Harrison, J. R. Rehr, M. Dupuis,
     D. Silverstein, D. M. A. Smith, J. Nieplocha, V. Tipparaju, M. Krishnan,
     B. E. Van Kuiken, A. Vazquez-Mayagoitia, M. Swart, Q. Wu, T. Van Voorhis,
     A. A. Auer, M. Nooijen, L. D. Crosby, E. Brown, G. Cisneros, G. I. Fann,
   H. Fruchtl, J. Garza, K. Hirao, R. A. Kendall, J. A. Nichols, K. Tsemekhman,
    K. Wolinski, J. Anchell, D. E. Bernholdt, P. Borowski, T. Clark, D. Clerc,
   H. Dachsel, M. J. O. Deegan, K. Dyall, D. Elwood, E. Glendening, M. Gutowski,
   A. C. Hess, J. Jaffe, B. G. Johnson, J. Ju, R. Kobayashi, R. Kutteh, Z. Lin,
   R. Littlefield, X. Long, B. Meng, T. Nakajima, S. Niu, L. Pollack, M. Rosing,
   K. Glaesemann, G. Sandrone, M. Stave, H. Taylor, G. Thomas, J. H. van Lenthe,
                               A. T. Wong, Z. Zhang.

 Total times  cpu:      499.2s     wall:      499.2s
